
    -----------------------------------------------------------------------
          Psi4: An Open-Source Ab Initio Electronic Structure Package
                               Psi4 1.2.1 release

                         Git: Rev {HEAD} 406f4de 


    R. M. Parrish, L. A. Burns, D. G. A. Smith, A. C. Simmonett,
    A. E. DePrince III, E. G. Hohenstein, U. Bozkaya, A. Yu. Sokolov,
    R. Di Remigio, R. M. Richard, J. F. Gonthier, A. M. James,
    H. R. McAlexander, A. Kumar, M. Saitow, X. Wang, B. P. Pritchard,
    P. Verma, H. F. Schaefer III, K. Patkowski, R. A. King, E. F. Valeev,
    F. A. Evangelista, J. M. Turney, T. D. Crawford, and C. D. Sherrill,
    J. Chem. Theory Comput. 13(7) pp 3185--3197 (2017).
    (doi: 10.1021/acs.jctc.7b00174)


                         Additional Contributions by
    P. Kraus, H. Kruse, M. H. Lechner, M. C. Schieber, and R. A. Shaw

    -----------------------------------------------------------------------


    Psi4 started on: Monday, 01 October 2018 07:03PM

    Process ID: 28234
    Host:       marcosgpc
    PSIDATADIR: /home/mike/anaconda3/share/psi4
    Memory:     500.0 MiB
    Threads:    1
    
  ==> Input File <==

--------------------------------------------------------------------------
import numpy as np

rmin = 0.1
rmax = 1.5 
pt_density = 300

molecule HeH {
	1 1
	he
	h 1 d
}

set basis sto-3g

print('\# d (Angstrom)	E (Hartree)')
for r in np.linspace(rmin, rmax, pt_density):
	HeH.d = r
	E = energy('hf', molecule=HeH)
	print('{}	{}'.format(r, E))
--------------------------------------------------------------------------
Molecule: geometry: Molecule is not complete, please use 'update_geometry'
                    once all variables are set.
Molecule: Setting geometry variable d to 0.100000

*** tstart() called on marcosgpc
*** at Mon Oct  1 19:03:48 2018

   => Loading Basis Set <=

    Name: STO-3G
    Role: ORBITAL
    Keyword: BASIS
    atoms 1 entry HE         line    25 file /home/mike/anaconda3/share/psi4/basis/sto-3g.gbs 
    atoms 2 entry H          line    19 file /home/mike/anaconda3/share/psi4/basis/sto-3g.gbs 


         ---------------------------------------------------------
                                   SCF
            by Justin Turney, Rob Parrish, Andy Simmonett
                             and Daniel Smith
                              RHF Reference
                        1 Threads,    500 MiB Core
         ---------------------------------------------------------

  ==> Geometry <==

    Molecular point group: c2v
    Full point group: C_inf_v

    Geometry (in Angstrom), charge = 1, multiplicity = 1:

       Center              X                  Y                   Z               Mass       
    ------------   -----------------  -----------------  -----------------  -----------------
         HE           0.000000000000     0.000000000000    -0.020114548587     4.002603254150
         H            0.000000000000     0.000000000000     0.079885451413     1.007825032070

  Running in c2v symmetry.

  Rotational constants: A = ************  B =   2093.84080  C =   2093.84080 [cm^-1]
  Rotational constants: A = ************  B = 62771768.05889  C = 62771768.05889 [MHz]
  Nuclear repulsion =   10.583544171799998

  Charge       = 1
  Multiplicity = 1
  Electrons    = 2
  Nalpha       = 1
  Nbeta        = 1

  ==> Algorithm <==

  SCF Algorithm Type is DF.
  DIIS enabled.
  MOM disabled.
  Fractional occupation disabled.
  Guess Type is SAD.
  Energy threshold   = 1.00e-06
  Density threshold  = 1.00e-06
  Integral threshold = 0.00e+00

  ==> Primary Basis <==

  Basis Set: STO-3G
    Blend: STO-3G
    Number of shells: 2
    Number of basis function: 2
    Number of Cartesian functions: 2
    Spherical Harmonics?: true
    Max angular momentum: 0

   => Loading Basis Set <=

    Name: (STO-3G AUX)
    Role: JKFIT
    Keyword: DF_BASIS_SCF
    atoms 1 entry HE         line    39 file /home/mike/anaconda3/share/psi4/basis/def2-svp-jkfit.gbs 
    atoms 2 entry H          line    23 file /home/mike/anaconda3/share/psi4/basis/def2-svp-jkfit.gbs 

  ==> Pre-Iterations <==

   -------------------------------------------------------
    Irrep   Nso     Nmo     Nalpha   Nbeta   Ndocc  Nsocc
   -------------------------------------------------------
     A1         2       2       0       0       0       0
     A2         0       0       0       0       0       0
     B1         0       0       0       0       0       0
     B2         0       0       0       0       0       0
   -------------------------------------------------------
    Total       2       2       1       1       1       0
   -------------------------------------------------------

  ==> Integral Setup <==

  DFHelper Memory: AOs need 0.000 [GiB]; user supplied 0.366 [GiB]. Using in-core AOs.

  ==> MemDFJK: Density-Fitted J/K Matrices <==

    J tasked:                   Yes
    K tasked:                   Yes
    wK tasked:                   No
    OpenMP threads:               1
    Memory (MB):                375
    Algorithm:                 Core
    Schwarz Cutoff:           1E-12
    Mask sparsity (%):       0.0000
    Fitting Condition:        1E-12

   => Auxiliary Basis Set <=

  Basis Set: (STO-3G AUX)
    Blend: DEF2-SVP-JKFIT
    Number of shells: 15
    Number of basis function: 41
    Number of Cartesian functions: 45
    Spherical Harmonics?: true
    Max angular momentum: 2

  Minimum eigenvalue in the overlap matrix is 4.7492105567E-02.
  Using Symmetric Orthogonalization.

  SCF Guess: Superposition of Atomic Densities via on-the-fly atomic UHF.

  ==> Iterations <==

                           Total Energy        Delta E     RMS |[F,P]|

   @DF-RHF iter   0:     4.93393159319506    4.93393e+00   5.14466e-01 
   @DF-RHF iter   1:     4.35214260691547   -5.81789e-01   5.31375e-02 
   @DF-RHF iter   2:     4.34762132853938   -4.52128e-03   6.87492e-03 DIIS
   @DF-RHF iter   3:     4.34754387513486   -7.74534e-05   1.76309e-05 DIIS
   @DF-RHF iter   4:     4.34754387462494   -5.09923e-10   2.56896e-08 DIIS

  ==> Post-Iterations <==

    Orbital Energies [Eh]
    ---------------------

    Doubly Occupied:                                                      

       1A1    -2.487264  

    Virtual:                                                              

       2A1     0.322801  

    Final Occupation by Irrep:
             A1    A2    B1    B2 
    DOCC [     1,    0,    0,    0 ]

  Energy converged.

  @DF-RHF Final Energy:     4.34754387462494

   => Energetics <=

    Nuclear Repulsion Energy =             10.5835441717999981
    One-Electron Energy =                  -7.4974735153603334
    Two-Electron Energy =                   1.2614732181852735
    Total Energy =                          4.3475438746249377



Properties will be evaluated at   0.000000,   0.000000,   0.000000 [a0]

Properties computed using the SCF density matrix

  Nuclear Dipole Moment: [e a0]
     X:     0.0000      Y:     0.0000      Z:     0.0749

  Electronic Dipole Moment: [e a0]
     X:     0.0000      Y:     0.0000      Z:     0.2393

  Dipole Moment: [e a0]
     X:     0.0000      Y:     0.0000      Z:     0.3142     Total:     0.3142

  Dipole Moment: [D]
     X:     0.0000      Y:     0.0000      Z:     0.7986     Total:     0.7986


*** tstop() called on marcosgpc at Mon Oct  1 19:03:48 2018
Module time:
	user time   =       0.26 seconds =       0.00 minutes
	system time =       0.00 seconds =       0.00 minutes
	total time  =          0 seconds =       0.00 minutes
Total time:
	user time   =       0.26 seconds =       0.00 minutes
	system time =       0.00 seconds =       0.00 minutes
	total time  =          0 seconds =       0.00 minutes
Molecule: Setting geometry variable d to 0.104682

*** tstart() called on marcosgpc
*** at Mon Oct  1 19:03:48 2018

   => Loading Basis Set <=

    Name: STO-3G
    Role: ORBITAL
    Keyword: BASIS
    atoms 1 entry HE         line    25 file /home/mike/anaconda3/share/psi4/basis/sto-3g.gbs 
    atoms 2 entry H          line    19 file /home/mike/anaconda3/share/psi4/basis/sto-3g.gbs 


         ---------------------------------------------------------
                                   SCF
            by Justin Turney, Rob Parrish, Andy Simmonett
                             and Daniel Smith
                              RHF Reference
                        1 Threads,    500 MiB Core
         ---------------------------------------------------------

  ==> Geometry <==

    Molecular point group: c2v
    Full point group: C_inf_v

    Geometry (in Angstrom), charge = 1, multiplicity = 1:

       Center              X                  Y                   Z               Mass       
    ------------   -----------------  -----------------  -----------------  -----------------
         HE           0.000000000000     0.000000000000    -0.021056366916     4.002603254150
         H            0.000000000000     0.000000000000     0.083625907332     1.007825032070

  Running in c2v symmetry.

  Rotational constants: A = ************  B =   1910.72137  C =   1910.72137 [cm^-1]
  Rotational constants: A = ************  B = 57281985.48758  C = 57281985.48758 [MHz]
  Nuclear repulsion =   10.110158809483067

  Charge       = 1
  Multiplicity = 1
  Electrons    = 2
  Nalpha       = 1
  Nbeta        = 1

  ==> Algorithm <==

  SCF Algorithm Type is DF.
  DIIS enabled.
  MOM disabled.
  Fractional occupation disabled.
  Guess Type is SAD.
  Energy threshold   = 1.00e-06
  Density threshold  = 1.00e-06
  Integral threshold = 0.00e+00

  ==> Primary Basis <==

  Basis Set: STO-3G
    Blend: STO-3G
    Number of shells: 2
    Number of basis function: 2
    Number of Cartesian functions: 2
    Spherical Harmonics?: true
    Max angular momentum: 0

   => Loading Basis Set <=

    Name: (STO-3G AUX)
    Role: JKFIT
    Keyword: DF_BASIS_SCF
    atoms 1 entry HE         line    39 file /home/mike/anaconda3/share/psi4/basis/def2-svp-jkfit.gbs 
    atoms 2 entry H          line    23 file /home/mike/anaconda3/share/psi4/basis/def2-svp-jkfit.gbs 

  ==> Pre-Iterations <==

   -------------------------------------------------------
    Irrep   Nso     Nmo     Nalpha   Nbeta   Ndocc  Nsocc
   -------------------------------------------------------
     A1         2       2       0       0       0       0
     A2         0       0       0       0       0       0
     B1         0       0       0       0       0       0
     B2         0       0       0       0       0       0
   -------------------------------------------------------
    Total       2       2       1       1       1       0
   -------------------------------------------------------

  ==> Integral Setup <==

  DFHelper Memory: AOs need 0.000 [GiB]; user supplied 0.366 [GiB]. Using in-core AOs.

  ==> MemDFJK: Density-Fitted J/K Matrices <==

    J tasked:                   Yes
    K tasked:                   Yes
    wK tasked:                   No
    OpenMP threads:               1
    Memory (MB):                375
    Algorithm:                 Core
    Schwarz Cutoff:           1E-12
    Mask sparsity (%):       0.0000
    Fitting Condition:        1E-12

   => Auxiliary Basis Set <=

  Basis Set: (STO-3G AUX)
    Blend: DEF2-SVP-JKFIT
    Number of shells: 15
    Number of basis function: 41
    Number of Cartesian functions: 45
    Spherical Harmonics?: true
    Max angular momentum: 2

  Minimum eigenvalue in the overlap matrix is 4.8595478442E-02.
  Using Symmetric Orthogonalization.

  SCF Guess: Superposition of Atomic Densities via on-the-fly atomic UHF.

  ==> Iterations <==

                           Total Energy        Delta E     RMS |[F,P]|

   @DF-RHF iter   0:     4.47259909028012    4.47260e+00   5.04692e-01 
   @DF-RHF iter   1:     3.90702302985266   -5.65576e-01   5.16598e-02 
   @DF-RHF iter   2:     3.90276152203376   -4.26151e-03   6.60905e-03 DIIS
   @DF-RHF iter   3:     3.90269018237352   -7.13397e-05   1.63081e-05 DIIS
   @DF-RHF iter   4:     3.90269018193871   -4.34808e-10   2.28315e-08 DIIS

  ==> Post-Iterations <==

    Orbital Energies [Eh]
    ---------------------

    Doubly Occupied:                                                      

       1A1    -2.477091  

    Virtual:                                                              

       2A1     0.337473  

    Final Occupation by Irrep:
             A1    A2    B1    B2 
    DOCC [     1,    0,    0,    0 ]

  Energy converged.

  @DF-RHF Final Energy:     3.90269018193871

   => Energetics <=

    Nuclear Repulsion Energy =             10.1101588094830674
    One-Electron Energy =                  -7.4607543085466066
    Two-Electron Energy =                   1.2532856810022519
    Total Energy =                          3.9026901819387128



Properties will be evaluated at   0.000000,   0.000000,   0.000000 [a0]

Properties computed using the SCF density matrix

  Nuclear Dipole Moment: [e a0]
     X:     0.0000      Y:     0.0000      Z:     0.0784

  Electronic Dipole Moment: [e a0]
     X:     0.0000      Y:     0.0000      Z:     0.2441

  Dipole Moment: [e a0]
     X:     0.0000      Y:     0.0000      Z:     0.3225     Total:     0.3225

  Dipole Moment: [D]
     X:     0.0000      Y:     0.0000      Z:     0.8197     Total:     0.8197


*** tstop() called on marcosgpc at Mon Oct  1 19:03:49 2018
Module time:
	user time   =       0.25 seconds =       0.00 minutes
	system time =       0.01 seconds =       0.00 minutes
	total time  =          1 seconds =       0.02 minutes
Total time:
	user time   =       0.52 seconds =       0.01 minutes
	system time =       0.01 seconds =       0.00 minutes
	total time  =          1 seconds =       0.02 minutes
Molecule: Setting geometry variable d to 0.109365

*** tstart() called on marcosgpc
*** at Mon Oct  1 19:03:49 2018

   => Loading Basis Set <=

    Name: STO-3G
    Role: ORBITAL
    Keyword: BASIS
    atoms 1 entry HE         line    25 file /home/mike/anaconda3/share/psi4/basis/sto-3g.gbs 
    atoms 2 entry H          line    19 file /home/mike/anaconda3/share/psi4/basis/sto-3g.gbs 


         ---------------------------------------------------------
                                   SCF
            by Justin Turney, Rob Parrish, Andy Simmonett
                             and Daniel Smith
                              RHF Reference
                        1 Threads,    500 MiB Core
         ---------------------------------------------------------

  ==> Geometry <==

    Molecular point group: c2v
    Full point group: C_inf_v

    Geometry (in Angstrom), charge = 1, multiplicity = 1:

       Center              X                  Y                   Z               Mass       
    ------------   -----------------  -----------------  -----------------  -----------------
         HE           0.000000000000     0.000000000000    -0.021998185244     4.002603254150
         H            0.000000000000     0.000000000000     0.087366363251     1.007825032070

  Running in c2v symmetry.

  Rotational constants: A = ************  B =   1750.61453  C =   1750.61453 [cm^-1]
  Rotational constants: A = ************  B = 52482103.41660  C = 52482103.41660 [MHz]
  Nuclear repulsion =    9.677307973603060

  Charge       = 1
  Multiplicity = 1
  Electrons    = 2
  Nalpha       = 1
  Nbeta        = 1

  ==> Algorithm <==

  SCF Algorithm Type is DF.
  DIIS enabled.
  MOM disabled.
  Fractional occupation disabled.
  Guess Type is SAD.
  Energy threshold   = 1.00e-06
  Density threshold  = 1.00e-06
  Integral threshold = 0.00e+00

  ==> Primary Basis <==

  Basis Set: STO-3G
    Blend: STO-3G
    Number of shells: 2
    Number of basis function: 2
    Number of Cartesian functions: 2
    Spherical Harmonics?: true
    Max angular momentum: 0

   => Loading Basis Set <=

    Name: (STO-3G AUX)
    Role: JKFIT
    Keyword: DF_BASIS_SCF
    atoms 1 entry HE         line    39 file /home/mike/anaconda3/share/psi4/basis/def2-svp-jkfit.gbs 
    atoms 2 entry H          line    23 file /home/mike/anaconda3/share/psi4/basis/def2-svp-jkfit.gbs 

  ==> Pre-Iterations <==

   -------------------------------------------------------
    Irrep   Nso     Nmo     Nalpha   Nbeta   Ndocc  Nsocc
   -------------------------------------------------------
     A1         2       2       0       0       0       0
     A2         0       0       0       0       0       0
     B1         0       0       0       0       0       0
     B2         0       0       0       0       0       0
   -------------------------------------------------------
    Total       2       2       1       1       1       0
   -------------------------------------------------------

  ==> Integral Setup <==

  DFHelper Memory: AOs need 0.000 [GiB]; user supplied 0.366 [GiB]. Using in-core AOs.

  ==> MemDFJK: Density-Fitted J/K Matrices <==

    J tasked:                   Yes
    K tasked:                   Yes
    wK tasked:                   No
    OpenMP threads:               1
    Memory (MB):                375
    Algorithm:                 Core
    Schwarz Cutoff:           1E-12
    Mask sparsity (%):       0.0000
    Fitting Condition:        1E-12

   => Auxiliary Basis Set <=

  Basis Set: (STO-3G AUX)
    Blend: DEF2-SVP-JKFIT
    Number of shells: 15
    Number of basis function: 41
    Number of Cartesian functions: 45
    Spherical Harmonics?: true
    Max angular momentum: 2

  Minimum eigenvalue in the overlap matrix is 4.9746564910E-02.
  Using Symmetric Orthogonalization.

  SCF Guess: Superposition of Atomic Densities via on-the-fly atomic UHF.

  ==> Iterations <==

                           Total Energy        Delta E     RMS |[F,P]|

   @DF-RHF iter   0:     4.05221367526864    4.05221e+00   4.94870e-01 
   @DF-RHF iter   1:     3.50222052571805   -5.49993e-01   5.02201e-02 
   @DF-RHF iter   2:     3.49820369426452   -4.01683e-03   6.35520e-03 DIIS
   @DF-RHF iter   3:     3.49813793762443   -6.57566e-05   1.50779e-05 DIIS
   @DF-RHF iter   4:     3.49813793725394   -3.70482e-10   2.02686e-08 DIIS

  ==> Post-Iterations <==

    Orbital Energies [Eh]
    ---------------------

    Doubly Occupied:                                                      

       1A1    -2.467033  

    Virtual:                                                              

       2A1     0.351716  

    Final Occupation by Irrep:
             A1    A2    B1    B2 
    DOCC [     1,    0,    0,    0 ]

  Energy converged.

  @DF-RHF Final Energy:     3.49813793725394

   => Energetics <=

    Nuclear Repulsion Energy =              9.6773079736030603
    One-Electron Energy =                  -7.4242744531948457
    Two-Electron Energy =                   1.2451044168457299
    Total Energy =                          3.4981379372539445



Properties will be evaluated at   0.000000,   0.000000,   0.000000 [a0]

Properties computed using the SCF density matrix

  Nuclear Dipole Moment: [e a0]
     X:     0.0000      Y:     0.0000      Z:     0.0820

  Electronic Dipole Moment: [e a0]
     X:     0.0000      Y:     0.0000      Z:     0.2482

  Dipole Moment: [e a0]
     X:     0.0000      Y:     0.0000      Z:     0.3302     Total:     0.3302

  Dipole Moment: [D]
     X:     0.0000      Y:     0.0000      Z:     0.8392     Total:     0.8392


*** tstop() called on marcosgpc at Mon Oct  1 19:03:49 2018
Module time:
	user time   =       0.24 seconds =       0.00 minutes
	system time =       0.01 seconds =       0.00 minutes
	total time  =          0 seconds =       0.00 minutes
Total time:
	user time   =       0.76 seconds =       0.01 minutes
	system time =       0.02 seconds =       0.00 minutes
	total time  =          1 seconds =       0.02 minutes
Molecule: Setting geometry variable d to 0.114047

*** tstart() called on marcosgpc
*** at Mon Oct  1 19:03:49 2018

   => Loading Basis Set <=

    Name: STO-3G
    Role: ORBITAL
    Keyword: BASIS
    atoms 1 entry HE         line    25 file /home/mike/anaconda3/share/psi4/basis/sto-3g.gbs 
    atoms 2 entry H          line    19 file /home/mike/anaconda3/share/psi4/basis/sto-3g.gbs 


         ---------------------------------------------------------
                                   SCF
            by Justin Turney, Rob Parrish, Andy Simmonett
                             and Daniel Smith
                              RHF Reference
                        1 Threads,    500 MiB Core
         ---------------------------------------------------------

  ==> Geometry <==

    Molecular point group: c2v
    Full point group: C_inf_v

    Geometry (in Angstrom), charge = 1, multiplicity = 1:

       Center              X                  Y                   Z               Mass       
    ------------   -----------------  -----------------  -----------------  -----------------
         HE           0.000000000000     0.000000000000    -0.022940003573     4.002603254150
         H            0.000000000000     0.000000000000     0.091106819170     1.007825032070

  Running in c2v symmetry.

  Rotational constants: A = ************  B =   1609.81985  C =   1609.81985 [cm^-1]
  Rotational constants: A = ************  B = 48261184.85594  C = 48261184.85594 [MHz]
  Nuclear repulsion =    9.279999141842229

  Charge       = 1
  Multiplicity = 1
  Electrons    = 2
  Nalpha       = 1
  Nbeta        = 1

  ==> Algorithm <==

  SCF Algorithm Type is DF.
  DIIS enabled.
  MOM disabled.
  Fractional occupation disabled.
  Guess Type is SAD.
  Energy threshold   = 1.00e-06
  Density threshold  = 1.00e-06
  Integral threshold = 0.00e+00

  ==> Primary Basis <==

  Basis Set: STO-3G
    Blend: STO-3G
    Number of shells: 2
    Number of basis function: 2
    Number of Cartesian functions: 2
    Spherical Harmonics?: true
    Max angular momentum: 0

   => Loading Basis Set <=

    Name: (STO-3G AUX)
    Role: JKFIT
    Keyword: DF_BASIS_SCF
    atoms 1 entry HE         line    39 file /home/mike/anaconda3/share/psi4/basis/def2-svp-jkfit.gbs 
    atoms 2 entry H          line    23 file /home/mike/anaconda3/share/psi4/basis/def2-svp-jkfit.gbs 

  ==> Pre-Iterations <==

   -------------------------------------------------------
    Irrep   Nso     Nmo     Nalpha   Nbeta   Ndocc  Nsocc
   -------------------------------------------------------
     A1         2       2       0       0       0       0
     A2         0       0       0       0       0       0
     B1         0       0       0       0       0       0
     B2         0       0       0       0       0       0
   -------------------------------------------------------
    Total       2       2       1       1       1       0
   -------------------------------------------------------

  ==> Integral Setup <==

  DFHelper Memory: AOs need 0.000 [GiB]; user supplied 0.366 [GiB]. Using in-core AOs.

  ==> MemDFJK: Density-Fitted J/K Matrices <==

    J tasked:                   Yes
    K tasked:                   Yes
    wK tasked:                   No
    OpenMP threads:               1
    Memory (MB):                375
    Algorithm:                 Core
    Schwarz Cutoff:           1E-12
    Mask sparsity (%):       0.0000
    Fitting Condition:        1E-12

   => Auxiliary Basis Set <=

  Basis Set: (STO-3G AUX)
    Blend: DEF2-SVP-JKFIT
    Number of shells: 15
    Number of basis function: 41
    Number of Cartesian functions: 45
    Spherical Harmonics?: true
    Max angular momentum: 2

  Minimum eigenvalue in the overlap matrix is 5.0945007928E-02.
  Using Symmetric Orthogonalization.

  SCF Guess: Superposition of Atomic Densities via on-the-fly atomic UHF.

  ==> Iterations <==

                           Total Energy        Delta E     RMS |[F,P]|

   @DF-RHF iter   0:     3.66776706980120    3.66777e+00   4.85027e-01 
   @DF-RHF iter   1:     3.13269071861630   -5.35076e-01   4.88204e-02 
   @DF-RHF iter   2:     3.12890382536678   -3.78689e-03   6.11347e-03 DIIS
   @DF-RHF iter   3:     3.12884315493560   -6.06704e-05   1.39387e-05 DIIS
   @DF-RHF iter   4:     3.12884315461993   -3.15669e-10   1.79827e-08 DIIS

  ==> Post-Iterations <==

    Orbital Energies [Eh]
    ---------------------

    Doubly Occupied:                                                      

       1A1    -2.457097  

    Virtual:                                                              

       2A1     0.365468  

    Final Occupation by Irrep:
             A1    A2    B1    B2 
    DOCC [     1,    0,    0,    0 ]

  Energy converged.

  @DF-RHF Final Energy:     3.12884315461993

   => Energetics <=

    Nuclear Repulsion Energy =              9.2799991418422287
    One-Electron Energy =                  -7.3881172438751408
    Two-Electron Energy =                   1.2369612566528445
    Total Energy =                          3.1288431546199327



Properties will be evaluated at   0.000000,   0.000000,   0.000000 [a0]

Properties computed using the SCF density matrix

  Nuclear Dipole Moment: [e a0]
     X:     0.0000      Y:     0.0000      Z:     0.0855

  Electronic Dipole Moment: [e a0]
     X:     0.0000      Y:     0.0000      Z:     0.2517

  Dipole Moment: [e a0]
     X:     0.0000      Y:     0.0000      Z:     0.3372     Total:     0.3372

  Dipole Moment: [D]
     X:     0.0000      Y:     0.0000      Z:     0.8571     Total:     0.8571


*** tstop() called on marcosgpc at Mon Oct  1 19:03:49 2018
Module time:
	user time   =       0.23 seconds =       0.00 minutes
	system time =       0.01 seconds =       0.00 minutes
	total time  =          0 seconds =       0.00 minutes
Total time:
	user time   =       1.00 seconds =       0.02 minutes
	system time =       0.03 seconds =       0.00 minutes
	total time  =          1 seconds =       0.02 minutes
Molecule: Setting geometry variable d to 0.118729

*** tstart() called on marcosgpc
*** at Mon Oct  1 19:03:49 2018

   => Loading Basis Set <=

    Name: STO-3G
    Role: ORBITAL
    Keyword: BASIS
    atoms 1 entry HE         line    25 file /home/mike/anaconda3/share/psi4/basis/sto-3g.gbs 
    atoms 2 entry H          line    19 file /home/mike/anaconda3/share/psi4/basis/sto-3g.gbs 


         ---------------------------------------------------------
                                   SCF
            by Justin Turney, Rob Parrish, Andy Simmonett
                             and Daniel Smith
                              RHF Reference
                        1 Threads,    500 MiB Core
         ---------------------------------------------------------

  ==> Geometry <==

    Molecular point group: c2v
    Full point group: C_inf_v

    Geometry (in Angstrom), charge = 1, multiplicity = 1:

       Center              X                  Y                   Z               Mass       
    ------------   -----------------  -----------------  -----------------  -----------------
         HE           0.000000000000     0.000000000000    -0.023881821901     4.002603254150
         H            0.000000000000     0.000000000000     0.094847275089     1.007825032070

  Running in c2v symmetry.

  Rotational constants: A = ************  B =   1485.35181  C =   1485.35181 [cm^-1]
  Rotational constants: A = ************  B = 44529726.92905  C = 44529726.92905 [MHz]
  Nuclear repulsion =    8.914027344699155

  Charge       = 1
  Multiplicity = 1
  Electrons    = 2
  Nalpha       = 1
  Nbeta        = 1

  ==> Algorithm <==

  SCF Algorithm Type is DF.
  DIIS enabled.
  MOM disabled.
  Fractional occupation disabled.
  Guess Type is SAD.
  Energy threshold   = 1.00e-06
  Density threshold  = 1.00e-06
  Integral threshold = 0.00e+00

  ==> Primary Basis <==

  Basis Set: STO-3G
    Blend: STO-3G
    Number of shells: 2
    Number of basis function: 2
    Number of Cartesian functions: 2
    Spherical Harmonics?: true
    Max angular momentum: 0

   => Loading Basis Set <=

    Name: (STO-3G AUX)
    Role: JKFIT
    Keyword: DF_BASIS_SCF
    atoms 1 entry HE         line    39 file /home/mike/anaconda3/share/psi4/basis/def2-svp-jkfit.gbs 
    atoms 2 entry H          line    23 file /home/mike/anaconda3/share/psi4/basis/def2-svp-jkfit.gbs 

  ==> Pre-Iterations <==

   -------------------------------------------------------
    Irrep   Nso     Nmo     Nalpha   Nbeta   Ndocc  Nsocc
   -------------------------------------------------------
     A1         2       2       0       0       0       0
     A2         0       0       0       0       0       0
     B1         0       0       0       0       0       0
     B2         0       0       0       0       0       0
   -------------------------------------------------------
    Total       2       2       1       1       1       0
   -------------------------------------------------------

  ==> Integral Setup <==

  DFHelper Memory: AOs need 0.000 [GiB]; user supplied 0.366 [GiB]. Using in-core AOs.

  ==> MemDFJK: Density-Fitted J/K Matrices <==

    J tasked:                   Yes
    K tasked:                   Yes
    wK tasked:                   No
    OpenMP threads:               1
    Memory (MB):                375
    Algorithm:                 Core
    Schwarz Cutoff:           1E-12
    Mask sparsity (%):       0.0000
    Fitting Condition:        1E-12

   => Auxiliary Basis Set <=

  Basis Set: (STO-3G AUX)
    Blend: DEF2-SVP-JKFIT
    Number of shells: 15
    Number of basis function: 41
    Number of Cartesian functions: 45
    Spherical Harmonics?: true
    Max angular momentum: 2

  Minimum eigenvalue in the overlap matrix is 5.2190437851E-02.
  Using Symmetric Orthogonalization.

  SCF Guess: Superposition of Atomic Densities via on-the-fly atomic UHF.

  ==> Iterations <==

                           Total Energy        Delta E     RMS |[F,P]|

   @DF-RHF iter   0:     3.31503840528591    3.31504e+00   4.75190e-01 
   @DF-RHF iter   1:     2.79418656859517   -5.20852e-01   4.74619e-02 
   @DF-RHF iter   2:     2.79061537555398   -3.57119e-03   5.88379e-03 DIIS
   @DF-RHF iter   3:     2.79055933049283   -5.60451e-05   1.28876e-05 DIIS
   @DF-RHF iter   4:     2.79055933022371   -2.69115e-10   1.59530e-08 DIIS

  ==> Post-Iterations <==

    Orbital Energies [Eh]
    ---------------------

    Doubly Occupied:                                                      

       1A1    -2.447292  

    Virtual:                                                              

       2A1     0.378672  

    Final Occupation by Irrep:
             A1    A2    B1    B2 
    DOCC [     1,    0,    0,    0 ]

  Energy converged.

  @DF-RHF Final Energy:     2.79055933022371

   => Energetics <=

    Nuclear Repulsion Energy =              8.9140273446991554
    One-Electron Energy =                  -7.3523528047223357
    Two-Electron Energy =                   1.2288847902468905
    Total Energy =                          2.7905593302237102



Properties will be evaluated at   0.000000,   0.000000,   0.000000 [a0]

Properties computed using the SCF density matrix

  Nuclear Dipole Moment: [e a0]
     X:     0.0000      Y:     0.0000      Z:     0.0890

  Electronic Dipole Moment: [e a0]
     X:     0.0000      Y:     0.0000      Z:     0.2547

  Dipole Moment: [e a0]
     X:     0.0000      Y:     0.0000      Z:     0.3437     Total:     0.3437

  Dipole Moment: [D]
     X:     0.0000      Y:     0.0000      Z:     0.8735     Total:     0.8735


*** tstop() called on marcosgpc at Mon Oct  1 19:03:49 2018
Module time:
	user time   =       0.24 seconds =       0.00 minutes
	system time =       0.01 seconds =       0.00 minutes
	total time  =          0 seconds =       0.00 minutes
Total time:
	user time   =       1.25 seconds =       0.02 minutes
	system time =       0.04 seconds =       0.00 minutes
	total time  =          1 seconds =       0.02 minutes
Molecule: Setting geometry variable d to 0.123411

*** tstart() called on marcosgpc
*** at Mon Oct  1 19:03:49 2018

   => Loading Basis Set <=

    Name: STO-3G
    Role: ORBITAL
    Keyword: BASIS
    atoms 1 entry HE         line    25 file /home/mike/anaconda3/share/psi4/basis/sto-3g.gbs 
    atoms 2 entry H          line    19 file /home/mike/anaconda3/share/psi4/basis/sto-3g.gbs 


         ---------------------------------------------------------
                                   SCF
            by Justin Turney, Rob Parrish, Andy Simmonett
                             and Daniel Smith
                              RHF Reference
                        1 Threads,    500 MiB Core
         ---------------------------------------------------------

  ==> Geometry <==

    Molecular point group: c2v
    Full point group: C_inf_v

    Geometry (in Angstrom), charge = 1, multiplicity = 1:

       Center              X                  Y                   Z               Mass       
    ------------   -----------------  -----------------  -----------------  -----------------
         HE           0.000000000000     0.000000000000    -0.024823640230     4.002603254150
         H            0.000000000000     0.000000000000     0.098587731007     1.007825032070

  Running in c2v symmetry.

  Rotational constants: A = ************  B =   1374.78031  C =   1374.78031 [cm^-1]
  Rotational constants: A = ************  B = 41214876.77259  C = 41214876.77259 [MHz]
  Nuclear repulsion =    8.575825765225474

  Charge       = 1
  Multiplicity = 1
  Electrons    = 2
  Nalpha       = 1
  Nbeta        = 1

  ==> Algorithm <==

  SCF Algorithm Type is DF.
  DIIS enabled.
  MOM disabled.
  Fractional occupation disabled.
  Guess Type is SAD.
  Energy threshold   = 1.00e-06
  Density threshold  = 1.00e-06
  Integral threshold = 0.00e+00

  ==> Primary Basis <==

  Basis Set: STO-3G
    Blend: STO-3G
    Number of shells: 2
    Number of basis function: 2
    Number of Cartesian functions: 2
    Spherical Harmonics?: true
    Max angular momentum: 0

   => Loading Basis Set <=

    Name: (STO-3G AUX)
    Role: JKFIT
    Keyword: DF_BASIS_SCF
    atoms 1 entry HE         line    39 file /home/mike/anaconda3/share/psi4/basis/def2-svp-jkfit.gbs 
    atoms 2 entry H          line    23 file /home/mike/anaconda3/share/psi4/basis/def2-svp-jkfit.gbs 

  ==> Pre-Iterations <==

   -------------------------------------------------------
    Irrep   Nso     Nmo     Nalpha   Nbeta   Ndocc  Nsocc
   -------------------------------------------------------
     A1         2       2       0       0       0       0
     A2         0       0       0       0       0       0
     B1         0       0       0       0       0       0
     B2         0       0       0       0       0       0
   -------------------------------------------------------
    Total       2       2       1       1       1       0
   -------------------------------------------------------

  ==> Integral Setup <==

  DFHelper Memory: AOs need 0.000 [GiB]; user supplied 0.366 [GiB]. Using in-core AOs.

  ==> MemDFJK: Density-Fitted J/K Matrices <==

    J tasked:                   Yes
    K tasked:                   Yes
    wK tasked:                   No
    OpenMP threads:               1
    Memory (MB):                375
    Algorithm:                 Core
    Schwarz Cutoff:           1E-12
    Mask sparsity (%):       0.0000
    Fitting Condition:        1E-12

   => Auxiliary Basis Set <=

  Basis Set: (STO-3G AUX)
    Blend: DEF2-SVP-JKFIT
    Number of shells: 15
    Number of basis function: 41
    Number of Cartesian functions: 45
    Spherical Harmonics?: true
    Max angular momentum: 2

  Minimum eigenvalue in the overlap matrix is 5.3482472791E-02.
  Using Symmetric Orthogonalization.

  SCF Guess: Superposition of Atomic Densities via on-the-fly atomic UHF.

  ==> Iterations <==

                           Total Energy        Delta E     RMS |[F,P]|

   @DF-RHF iter   0:     2.99044487084517    2.99044e+00   4.65381e-01 
   @DF-RHF iter   1:     2.48310792985353   -5.07337e-01   4.61452e-02 
   @DF-RHF iter   2:     2.47973880274724   -3.36913e-03   5.66595e-03 DIIS
   @DF-RHF iter   3:     2.47968695881344   -5.18439e-05   1.19208e-05 DIIS
   @DF-RHF iter   4:     2.47968695858376   -2.29677e-10   1.41570e-08 DIIS

  ==> Post-Iterations <==

    Orbital Energies [Eh]
    ---------------------

    Doubly Occupied:                                                      

       1A1    -2.437619  

    Virtual:                                                              

       2A1     0.391282  

    Final Occupation by Irrep:
             A1    A2    B1    B2 
    DOCC [     1,    0,    0,    0 ]

  Energy converged.

  @DF-RHF Final Energy:     2.47968695858376

   => Energetics <=

    Nuclear Repulsion Energy =              8.5758257652254741
    One-Electron Energy =                  -7.3170391174432421
    Two-Electron Energy =                   1.2209003108015304
    Total Energy =                          2.4796869585837626



Properties will be evaluated at   0.000000,   0.000000,   0.000000 [a0]

Properties computed using the SCF density matrix

  Nuclear Dipole Moment: [e a0]
     X:     0.0000      Y:     0.0000      Z:     0.0925

  Electronic Dipole Moment: [e a0]
     X:     0.0000      Y:     0.0000      Z:     0.2571

  Dipole Moment: [e a0]
     X:     0.0000      Y:     0.0000      Z:     0.3496     Total:     0.3496

  Dipole Moment: [D]
     X:     0.0000      Y:     0.0000      Z:     0.8885     Total:     0.8885


*** tstop() called on marcosgpc at Mon Oct  1 19:03:50 2018
Module time:
	user time   =       0.24 seconds =       0.00 minutes
	system time =       0.00 seconds =       0.00 minutes
	total time  =          1 seconds =       0.02 minutes
Total time:
	user time   =       1.49 seconds =       0.02 minutes
	system time =       0.04 seconds =       0.00 minutes
	total time  =          2 seconds =       0.03 minutes
Molecule: Setting geometry variable d to 0.128094

*** tstart() called on marcosgpc
*** at Mon Oct  1 19:03:50 2018

   => Loading Basis Set <=

    Name: STO-3G
    Role: ORBITAL
    Keyword: BASIS
    atoms 1 entry HE         line    25 file /home/mike/anaconda3/share/psi4/basis/sto-3g.gbs 
    atoms 2 entry H          line    19 file /home/mike/anaconda3/share/psi4/basis/sto-3g.gbs 


         ---------------------------------------------------------
                                   SCF
            by Justin Turney, Rob Parrish, Andy Simmonett
                             and Daniel Smith
                              RHF Reference
                        1 Threads,    500 MiB Core
         ---------------------------------------------------------

  ==> Geometry <==

    Molecular point group: c2v
    Full point group: C_inf_v

    Geometry (in Angstrom), charge = 1, multiplicity = 1:

       Center              X                  Y                   Z               Mass       
    ------------   -----------------  -----------------  -----------------  -----------------
         HE           0.000000000000     0.000000000000    -0.025765458558     4.002603254150
         H            0.000000000000     0.000000000000     0.102328186926     1.007825032070

  Running in c2v symmetry.

  Rotational constants: A = ************  B =   1276.11110  C =   1276.11110 [cm^-1]
  Rotational constants: A = ************  B = 38256848.40876  C = 38256848.40876 [MHz]
  Nuclear repulsion =    8.262349105400002

  Charge       = 1
  Multiplicity = 1
  Electrons    = 2
  Nalpha       = 1
  Nbeta        = 1

  ==> Algorithm <==

  SCF Algorithm Type is DF.
  DIIS enabled.
  MOM disabled.
  Fractional occupation disabled.
  Guess Type is SAD.
  Energy threshold   = 1.00e-06
  Density threshold  = 1.00e-06
  Integral threshold = 0.00e+00

  ==> Primary Basis <==

  Basis Set: STO-3G
    Blend: STO-3G
    Number of shells: 2
    Number of basis function: 2
    Number of Cartesian functions: 2
    Spherical Harmonics?: true
    Max angular momentum: 0

   => Loading Basis Set <=

    Name: (STO-3G AUX)
    Role: JKFIT
    Keyword: DF_BASIS_SCF
    atoms 1 entry HE         line    39 file /home/mike/anaconda3/share/psi4/basis/def2-svp-jkfit.gbs 
    atoms 2 entry H          line    23 file /home/mike/anaconda3/share/psi4/basis/def2-svp-jkfit.gbs 

  ==> Pre-Iterations <==

   -------------------------------------------------------
    Irrep   Nso     Nmo     Nalpha   Nbeta   Ndocc  Nsocc
   -------------------------------------------------------
     A1         2       2       0       0       0       0
     A2         0       0       0       0       0       0
     B1         0       0       0       0       0       0
     B2         0       0       0       0       0       0
   -------------------------------------------------------
    Total       2       2       1       1       1       0
   -------------------------------------------------------

  ==> Integral Setup <==

  DFHelper Memory: AOs need 0.000 [GiB]; user supplied 0.366 [GiB]. Using in-core AOs.

  ==> MemDFJK: Density-Fitted J/K Matrices <==

    J tasked:                   Yes
    K tasked:                   Yes
    wK tasked:                   No
    OpenMP threads:               1
    Memory (MB):                375
    Algorithm:                 Core
    Schwarz Cutoff:           1E-12
    Mask sparsity (%):       0.0000
    Fitting Condition:        1E-12

   => Auxiliary Basis Set <=

  Basis Set: (STO-3G AUX)
    Blend: DEF2-SVP-JKFIT
    Number of shells: 15
    Number of basis function: 41
    Number of Cartesian functions: 45
    Spherical Harmonics?: true
    Max angular momentum: 2

  Minimum eigenvalue in the overlap matrix is 5.4820718982E-02.
  Using Symmetric Orthogonalization.

  SCF Guess: Superposition of Atomic Densities via on-the-fly atomic UHF.

  ==> Iterations <==

                           Total Energy        Delta E     RMS |[F,P]|

   @DF-RHF iter   0:     2.69092512633435    2.69093e+00   4.55623e-01 
   @DF-RHF iter   1:     2.19638389534132   -4.94541e-01   4.48705e-02 
   @DF-RHF iter   2:     2.19320387286553   -3.18002e-03   5.45961e-03 DIIS
   @DF-RHF iter   3:     2.19315584194776   -4.80309e-05   1.10336e-05 DIIS
   @DF-RHF iter   4:     2.19315584175144   -1.96321e-10   1.25723e-08 DIIS

  ==> Post-Iterations <==

    Orbital Energies [Eh]
    ---------------------

    Doubly Occupied:                                                      

       1A1    -2.428082  

    Virtual:                                                              

       2A1     0.403257  

    Final Occupation by Irrep:
             A1    A2    B1    B2 
    DOCC [     1,    0,    0,    0 ]

  Energy converged.

  @DF-RHF Final Energy:     2.19315584175144

   => Energetics <=

    Nuclear Repulsion Energy =              8.2623491054000020
    One-Electron Energy =                  -7.2822231093469156
    Two-Electron Energy =                   1.2130298456983548
    Total Energy =                          2.1931558417514410



Properties will be evaluated at   0.000000,   0.000000,   0.000000 [a0]

Properties computed using the SCF density matrix

  Nuclear Dipole Moment: [e a0]
     X:     0.0000      Y:     0.0000      Z:     0.0960

  Electronic Dipole Moment: [e a0]
     X:     0.0000      Y:     0.0000      Z:     0.2589

  Dipole Moment: [e a0]
     X:     0.0000      Y:     0.0000      Z:     0.3549     Total:     0.3549

  Dipole Moment: [D]
     X:     0.0000      Y:     0.0000      Z:     0.9021     Total:     0.9021


*** tstop() called on marcosgpc at Mon Oct  1 19:03:50 2018
Module time:
	user time   =       0.24 seconds =       0.00 minutes
	system time =       0.01 seconds =       0.00 minutes
	total time  =          0 seconds =       0.00 minutes
Total time:
	user time   =       1.74 seconds =       0.03 minutes
	system time =       0.05 seconds =       0.00 minutes
	total time  =          2 seconds =       0.03 minutes
Molecule: Setting geometry variable d to 0.132776

*** tstart() called on marcosgpc
*** at Mon Oct  1 19:03:50 2018

   => Loading Basis Set <=

    Name: STO-3G
    Role: ORBITAL
    Keyword: BASIS
    atoms 1 entry HE         line    25 file /home/mike/anaconda3/share/psi4/basis/sto-3g.gbs 
    atoms 2 entry H          line    19 file /home/mike/anaconda3/share/psi4/basis/sto-3g.gbs 


         ---------------------------------------------------------
                                   SCF
            by Justin Turney, Rob Parrish, Andy Simmonett
                             and Daniel Smith
                              RHF Reference
                        1 Threads,    500 MiB Core
         ---------------------------------------------------------

  ==> Geometry <==

    Molecular point group: c2v
    Full point group: C_inf_v

    Geometry (in Angstrom), charge = 1, multiplicity = 1:

       Center              X                  Y                   Z               Mass       
    ------------   -----------------  -----------------  -----------------  -----------------
         HE           0.000000000000     0.000000000000    -0.026707276887     4.002603254150
         H            0.000000000000     0.000000000000     0.106068642845     1.007825032070

  Running in c2v symmetry.

  Rotational constants: A = ************  B =   1187.69526  C =   1187.69526 [cm^-1]
  Rotational constants: A = ************  B = 35606207.99722  C = 35606207.99722 [MHz]
  Nuclear repulsion =    7.970981630650377

  Charge       = 1
  Multiplicity = 1
  Electrons    = 2
  Nalpha       = 1
  Nbeta        = 1

  ==> Algorithm <==

  SCF Algorithm Type is DF.
  DIIS enabled.
  MOM disabled.
  Fractional occupation disabled.
  Guess Type is SAD.
  Energy threshold   = 1.00e-06
  Density threshold  = 1.00e-06
  Integral threshold = 0.00e+00

  ==> Primary Basis <==

  Basis Set: STO-3G
    Blend: STO-3G
    Number of shells: 2
    Number of basis function: 2
    Number of Cartesian functions: 2
    Spherical Harmonics?: true
    Max angular momentum: 0

   => Loading Basis Set <=

    Name: (STO-3G AUX)
    Role: JKFIT
    Keyword: DF_BASIS_SCF
    atoms 1 entry HE         line    39 file /home/mike/anaconda3/share/psi4/basis/def2-svp-jkfit.gbs 
    atoms 2 entry H          line    23 file /home/mike/anaconda3/share/psi4/basis/def2-svp-jkfit.gbs 

  ==> Pre-Iterations <==

   -------------------------------------------------------
    Irrep   Nso     Nmo     Nalpha   Nbeta   Ndocc  Nsocc
   -------------------------------------------------------
     A1         2       2       0       0       0       0
     A2         0       0       0       0       0       0
     B1         0       0       0       0       0       0
     B2         0       0       0       0       0       0
   -------------------------------------------------------
    Total       2       2       1       1       1       0
   -------------------------------------------------------

  ==> Integral Setup <==

  DFHelper Memory: AOs need 0.000 [GiB]; user supplied 0.366 [GiB]. Using in-core AOs.

  ==> MemDFJK: Density-Fitted J/K Matrices <==

    J tasked:                   Yes
    K tasked:                   Yes
    wK tasked:                   No
    OpenMP threads:               1
    Memory (MB):                375
    Algorithm:                 Core
    Schwarz Cutoff:           1E-12
    Mask sparsity (%):       0.0000
    Fitting Condition:        1E-12

   => Auxiliary Basis Set <=

  Basis Set: (STO-3G AUX)
    Blend: DEF2-SVP-JKFIT
    Number of shells: 15
    Number of basis function: 41
    Number of Cartesian functions: 45
    Spherical Harmonics?: true
    Max angular momentum: 2

  Minimum eigenvalue in the overlap matrix is 5.6204771153E-02.
  Using Symmetric Orthogonalization.

  SCF Guess: Superposition of Atomic Densities via on-the-fly atomic UHF.

  ==> Iterations <==

                           Total Energy        Delta E     RMS |[F,P]|

   @DF-RHF iter   0:     2.41384739174080    2.41385e+00   4.45936e-01 
   @DF-RHF iter   1:     1.93137986255728   -4.82468e-01   4.36374e-02 
   @DF-RHF iter   2:     1.92837669734422   -3.00317e-03   5.26436e-03 DIIS
   @DF-RHF iter   3:     1.92833212620937   -4.45711e-05   1.02210e-05 DIIS
   @DF-RHF iter   4:     1.92833212604123   -1.68142e-10   1.11769e-08 DIIS

  ==> Post-Iterations <==

    Orbital Energies [Eh]
    ---------------------

    Doubly Occupied:                                                      

       1A1    -2.418679  

    Virtual:                                                              

       2A1     0.414566  

    Final Occupation by Irrep:
             A1    A2    B1    B2 
    DOCC [     1,    0,    0,    0 ]

  Energy converged.

  @DF-RHF Final Energy:     1.92833212604123

   => Energetics <=

    Nuclear Repulsion Energy =              7.9709816306503773
    One-Electron Energy =                  -7.2479417615856638
    Two-Electron Energy =                   1.2052922569765139
    Total Energy =                          1.9283321260412274



Properties will be evaluated at   0.000000,   0.000000,   0.000000 [a0]

Properties computed using the SCF density matrix

  Nuclear Dipole Moment: [e a0]
     X:     0.0000      Y:     0.0000      Z:     0.0995

  Electronic Dipole Moment: [e a0]
     X:     0.0000      Y:     0.0000      Z:     0.2603

  Dipole Moment: [e a0]
     X:     0.0000      Y:     0.0000      Z:     0.3598     Total:     0.3598

  Dipole Moment: [D]
     X:     0.0000      Y:     0.0000      Z:     0.9145     Total:     0.9145


*** tstop() called on marcosgpc at Mon Oct  1 19:03:50 2018
Module time:
	user time   =       0.25 seconds =       0.00 minutes
	system time =       0.00 seconds =       0.00 minutes
	total time  =          0 seconds =       0.00 minutes
Total time:
	user time   =       1.99 seconds =       0.03 minutes
	system time =       0.05 seconds =       0.00 minutes
	total time  =          2 seconds =       0.03 minutes
Molecule: Setting geometry variable d to 0.137458

*** tstart() called on marcosgpc
*** at Mon Oct  1 19:03:50 2018

   => Loading Basis Set <=

    Name: STO-3G
    Role: ORBITAL
    Keyword: BASIS
    atoms 1 entry HE         line    25 file /home/mike/anaconda3/share/psi4/basis/sto-3g.gbs 
    atoms 2 entry H          line    19 file /home/mike/anaconda3/share/psi4/basis/sto-3g.gbs 


         ---------------------------------------------------------
                                   SCF
            by Justin Turney, Rob Parrish, Andy Simmonett
                             and Daniel Smith
                              RHF Reference
                        1 Threads,    500 MiB Core
         ---------------------------------------------------------

  ==> Geometry <==

    Molecular point group: c2v
    Full point group: C_inf_v

    Geometry (in Angstrom), charge = 1, multiplicity = 1:

       Center              X                  Y                   Z               Mass       
    ------------   -----------------  -----------------  -----------------  -----------------
         HE           0.000000000000     0.000000000000    -0.027649095215     4.002603254150
         H            0.000000000000     0.000000000000     0.109809098764     1.007825032070

  Running in c2v symmetry.

  Rotational constants: A = ************  B =   1108.15980  C =   1108.15980 [cm^-1]
  Rotational constants: A = ************  B = 33221795.01799  C = 33221795.01799 [MHz]
  Nuclear repulsion =    7.699464008195134

  Charge       = 1
  Multiplicity = 1
  Electrons    = 2
  Nalpha       = 1
  Nbeta        = 1

  ==> Algorithm <==

  SCF Algorithm Type is DF.
  DIIS enabled.
  MOM disabled.
  Fractional occupation disabled.
  Guess Type is SAD.
  Energy threshold   = 1.00e-06
  Density threshold  = 1.00e-06
  Integral threshold = 0.00e+00

  ==> Primary Basis <==

  Basis Set: STO-3G
    Blend: STO-3G
    Number of shells: 2
    Number of basis function: 2
    Number of Cartesian functions: 2
    Spherical Harmonics?: true
    Max angular momentum: 0

   => Loading Basis Set <=

    Name: (STO-3G AUX)
    Role: JKFIT
    Keyword: DF_BASIS_SCF
    atoms 1 entry HE         line    39 file /home/mike/anaconda3/share/psi4/basis/def2-svp-jkfit.gbs 
    atoms 2 entry H          line    23 file /home/mike/anaconda3/share/psi4/basis/def2-svp-jkfit.gbs 

  ==> Pre-Iterations <==

   -------------------------------------------------------
    Irrep   Nso     Nmo     Nalpha   Nbeta   Ndocc  Nsocc
   -------------------------------------------------------
     A1         2       2       0       0       0       0
     A2         0       0       0       0       0       0
     B1         0       0       0       0       0       0
     B2         0       0       0       0       0       0
   -------------------------------------------------------
    Total       2       2       1       1       1       0
   -------------------------------------------------------

  ==> Integral Setup <==

  DFHelper Memory: AOs need 0.000 [GiB]; user supplied 0.366 [GiB]. Using in-core AOs.

  ==> MemDFJK: Density-Fitted J/K Matrices <==

    J tasked:                   Yes
    K tasked:                   Yes
    wK tasked:                   No
    OpenMP threads:               1
    Memory (MB):                375
    Algorithm:                 Core
    Schwarz Cutoff:           1E-12
    Mask sparsity (%):       0.0000
    Fitting Condition:        1E-12

   => Auxiliary Basis Set <=

  Basis Set: (STO-3G AUX)
    Blend: DEF2-SVP-JKFIT
    Number of shells: 15
    Number of basis function: 41
    Number of Cartesian functions: 45
    Spherical Harmonics?: true
    Max angular momentum: 2

  Minimum eigenvalue in the overlap matrix is 5.7634212903E-02.
  Using Symmetric Orthogonalization.

  SCF Guess: Superposition of Atomic Densities via on-the-fly atomic UHF.

  ==> Iterations <==

                           Total Energy        Delta E     RMS |[F,P]|

   @DF-RHF iter   0:     2.15693632845847    2.15694e+00   4.36338e-01 
   @DF-RHF iter   1:     1.68582345258459   -4.71113e-01   4.24452e-02 
   @DF-RHF iter   2:     1.68298562944648   -2.83782e-03   5.07971e-03 DIIS
   @DF-RHF iter   3:     1.68294419794849   -4.14315e-05   9.47785e-06 DIIS
   @DF-RHF iter   4:     1.68294419780415   -1.44344e-10   9.95011e-09 DIIS

  ==> Post-Iterations <==

    Orbital Energies [Eh]
    ---------------------

    Doubly Occupied:                                                      

       1A1    -2.409408  

    Virtual:                                                              

       2A1     0.425182  

    Final Occupation by Irrep:
             A1    A2    B1    B2 
    DOCC [     1,    0,    0,    0 ]

  Energy converged.

  @DF-RHF Final Energy:     1.68294419780415

   => Energetics <=

    Nuclear Repulsion Energy =              7.6994640081951342
    One-Electron Energy =                  -7.2142232054900122
    Two-Electron Energy =                   1.1977033950990292
    Total Energy =                          1.6829441978041513



Properties will be evaluated at   0.000000,   0.000000,   0.000000 [a0]

Properties computed using the SCF density matrix

  Nuclear Dipole Moment: [e a0]
     X:     0.0000      Y:     0.0000      Z:     0.1030

  Electronic Dipole Moment: [e a0]
     X:     0.0000      Y:     0.0000      Z:     0.2612

  Dipole Moment: [e a0]
     X:     0.0000      Y:     0.0000      Z:     0.3642     Total:     0.3642

  Dipole Moment: [D]
     X:     0.0000      Y:     0.0000      Z:     0.9257     Total:     0.9257


*** tstop() called on marcosgpc at Mon Oct  1 19:03:50 2018
Module time:
	user time   =       0.25 seconds =       0.00 minutes
	system time =       0.00 seconds =       0.00 minutes
	total time  =          0 seconds =       0.00 minutes
Total time:
	user time   =       2.24 seconds =       0.04 minutes
	system time =       0.05 seconds =       0.00 minutes
	total time  =          2 seconds =       0.03 minutes
Molecule: Setting geometry variable d to 0.142140

*** tstart() called on marcosgpc
*** at Mon Oct  1 19:03:50 2018

   => Loading Basis Set <=

    Name: STO-3G
    Role: ORBITAL
    Keyword: BASIS
    atoms 1 entry HE         line    25 file /home/mike/anaconda3/share/psi4/basis/sto-3g.gbs 
    atoms 2 entry H          line    19 file /home/mike/anaconda3/share/psi4/basis/sto-3g.gbs 


         ---------------------------------------------------------
                                   SCF
            by Justin Turney, Rob Parrish, Andy Simmonett
                             and Daniel Smith
                              RHF Reference
                        1 Threads,    500 MiB Core
         ---------------------------------------------------------

  ==> Geometry <==

    Molecular point group: c2v
    Full point group: C_inf_v

    Geometry (in Angstrom), charge = 1, multiplicity = 1:

       Center              X                  Y                   Z               Mass       
    ------------   -----------------  -----------------  -----------------  -----------------
         HE           0.000000000000     0.000000000000    -0.028590913544     4.002603254150
         H            0.000000000000     0.000000000000     0.113549554683     1.007825032070

  Running in c2v symmetry.

  Rotational constants: A = ************  B =   1036.35411  C =   1036.35411 [cm^-1]
  Rotational constants: A = ************  B = 31069114.66427  C = 31069114.66427 [MHz]
  Nuclear repulsion =    7.445834605572235

  Charge       = 1
  Multiplicity = 1
  Electrons    = 2
  Nalpha       = 1
  Nbeta        = 1

  ==> Algorithm <==

  SCF Algorithm Type is DF.
  DIIS enabled.
  MOM disabled.
  Fractional occupation disabled.
  Guess Type is SAD.
  Energy threshold   = 1.00e-06
  Density threshold  = 1.00e-06
  Integral threshold = 0.00e+00

  ==> Primary Basis <==

  Basis Set: STO-3G
    Blend: STO-3G
    Number of shells: 2
    Number of basis function: 2
    Number of Cartesian functions: 2
    Spherical Harmonics?: true
    Max angular momentum: 0

   => Loading Basis Set <=

    Name: (STO-3G AUX)
    Role: JKFIT
    Keyword: DF_BASIS_SCF
    atoms 1 entry HE         line    39 file /home/mike/anaconda3/share/psi4/basis/def2-svp-jkfit.gbs 
    atoms 2 entry H          line    23 file /home/mike/anaconda3/share/psi4/basis/def2-svp-jkfit.gbs 

  ==> Pre-Iterations <==

   -------------------------------------------------------
    Irrep   Nso     Nmo     Nalpha   Nbeta   Ndocc  Nsocc
   -------------------------------------------------------
     A1         2       2       0       0       0       0
     A2         0       0       0       0       0       0
     B1         0       0       0       0       0       0
     B2         0       0       0       0       0       0
   -------------------------------------------------------
    Total       2       2       1       1       1       0
   -------------------------------------------------------

  ==> Integral Setup <==

  DFHelper Memory: AOs need 0.000 [GiB]; user supplied 0.366 [GiB]. Using in-core AOs.

  ==> MemDFJK: Density-Fitted J/K Matrices <==

    J tasked:                   Yes
    K tasked:                   Yes
    wK tasked:                   No
    OpenMP threads:               1
    Memory (MB):                375
    Algorithm:                 Core
    Schwarz Cutoff:           1E-12
    Mask sparsity (%):       0.0000
    Fitting Condition:        1E-12

   => Auxiliary Basis Set <=

  Basis Set: (STO-3G AUX)
    Blend: DEF2-SVP-JKFIT
    Number of shells: 15
    Number of basis function: 41
    Number of Cartesian functions: 45
    Spherical Harmonics?: true
    Max angular momentum: 2

  Minimum eigenvalue in the overlap matrix is 5.9108617094E-02.
  Using Symmetric Orthogonalization.

  SCF Guess: Superposition of Atomic Densities via on-the-fly atomic UHF.

  ==> Iterations <==

                           Total Energy        Delta E     RMS |[F,P]|

   @DF-RHF iter   0:     1.91821437865540    1.91821e+00   4.26845e-01 
   @DF-RHF iter   1:     1.45774495925788   -4.60469e-01   4.12930e-02 
   @DF-RHF iter   2:     1.45506169564821   -2.68326e-03   4.90515e-03 DIIS
   @DF-RHF iter   3:     1.45502311460068   -3.85810e-05   8.79884e-06 DIIS
   @DF-RHF iter   4:     1.45502311447646   -1.24223e-10   8.87245e-09 DIIS

  ==> Post-Iterations <==

    Orbital Energies [Eh]
    ---------------------

    Doubly Occupied:                                                      

       1A1    -2.400268  

    Virtual:                                                              

       2A1     0.435087  

    Final Occupation by Irrep:
             A1    A2    B1    B2 
    DOCC [     1,    0,    0,    0 ]

  Energy converged.

  @DF-RHF Final Energy:     1.45502311447646

   => Energetics <=

    Nuclear Repulsion Energy =              7.4458346055722346
    One-Electron Energy =                  -7.1810877821769363
    Two-Electron Energy =                   1.1902762910811575
    Total Energy =                          1.4550231144764558



Properties will be evaluated at   0.000000,   0.000000,   0.000000 [a0]

Properties computed using the SCF density matrix

  Nuclear Dipole Moment: [e a0]
     X:     0.0000      Y:     0.0000      Z:     0.1065

  Electronic Dipole Moment: [e a0]
     X:     0.0000      Y:     0.0000      Z:     0.2617

  Dipole Moment: [e a0]
     X:     0.0000      Y:     0.0000      Z:     0.3682     Total:     0.3682

  Dipole Moment: [D]
     X:     0.0000      Y:     0.0000      Z:     0.9358     Total:     0.9358


*** tstop() called on marcosgpc at Mon Oct  1 19:03:51 2018
Module time:
	user time   =       0.26 seconds =       0.00 minutes
	system time =       0.01 seconds =       0.00 minutes
	total time  =          1 seconds =       0.02 minutes
Total time:
	user time   =       2.50 seconds =       0.04 minutes
	system time =       0.06 seconds =       0.00 minutes
	total time  =          3 seconds =       0.05 minutes
Molecule: Setting geometry variable d to 0.146823

*** tstart() called on marcosgpc
*** at Mon Oct  1 19:03:51 2018

   => Loading Basis Set <=

    Name: STO-3G
    Role: ORBITAL
    Keyword: BASIS
    atoms 1 entry HE         line    25 file /home/mike/anaconda3/share/psi4/basis/sto-3g.gbs 
    atoms 2 entry H          line    19 file /home/mike/anaconda3/share/psi4/basis/sto-3g.gbs 


         ---------------------------------------------------------
                                   SCF
            by Justin Turney, Rob Parrish, Andy Simmonett
                             and Daniel Smith
                              RHF Reference
                        1 Threads,    500 MiB Core
         ---------------------------------------------------------

  ==> Geometry <==

    Molecular point group: c2v
    Full point group: C_inf_v

    Geometry (in Angstrom), charge = 1, multiplicity = 1:

       Center              X                  Y                   Z               Mass       
    ------------   -----------------  -----------------  -----------------  -----------------
         HE           0.000000000000     0.000000000000    -0.029532731873     4.002603254150
         H            0.000000000000     0.000000000000     0.117290010602     1.007825032070

  Running in c2v symmetry.

  Rotational constants: A = ************  B =    971.30806  C =    971.30806 [cm^-1]
  Rotational constants: A = ************  B = 29119083.21477  C = 29119083.21477 [MHz]
  Nuclear repulsion =    7.208382021339863

  Charge       = 1
  Multiplicity = 1
  Electrons    = 2
  Nalpha       = 1
  Nbeta        = 1

  ==> Algorithm <==

  SCF Algorithm Type is DF.
  DIIS enabled.
  MOM disabled.
  Fractional occupation disabled.
  Guess Type is SAD.
  Energy threshold   = 1.00e-06
  Density threshold  = 1.00e-06
  Integral threshold = 0.00e+00

  ==> Primary Basis <==

  Basis Set: STO-3G
    Blend: STO-3G
    Number of shells: 2
    Number of basis function: 2
    Number of Cartesian functions: 2
    Spherical Harmonics?: true
    Max angular momentum: 0

   => Loading Basis Set <=

    Name: (STO-3G AUX)
    Role: JKFIT
    Keyword: DF_BASIS_SCF
    atoms 1 entry HE         line    39 file /home/mike/anaconda3/share/psi4/basis/def2-svp-jkfit.gbs 
    atoms 2 entry H          line    23 file /home/mike/anaconda3/share/psi4/basis/def2-svp-jkfit.gbs 

  ==> Pre-Iterations <==

   -------------------------------------------------------
    Irrep   Nso     Nmo     Nalpha   Nbeta   Ndocc  Nsocc
   -------------------------------------------------------
     A1         2       2       0       0       0       0
     A2         0       0       0       0       0       0
     B1         0       0       0       0       0       0
     B2         0       0       0       0       0       0
   -------------------------------------------------------
    Total       2       2       1       1       1       0
   -------------------------------------------------------

  ==> Integral Setup <==

  DFHelper Memory: AOs need 0.000 [GiB]; user supplied 0.366 [GiB]. Using in-core AOs.

  ==> MemDFJK: Density-Fitted J/K Matrices <==

    J tasked:                   Yes
    K tasked:                   Yes
    wK tasked:                   No
    OpenMP threads:               1
    Memory (MB):                375
    Algorithm:                 Core
    Schwarz Cutoff:           1E-12
    Mask sparsity (%):       0.0000
    Fitting Condition:        1E-12

   => Auxiliary Basis Set <=

  Basis Set: (STO-3G AUX)
    Blend: DEF2-SVP-JKFIT
    Number of shells: 15
    Number of basis function: 41
    Number of Cartesian functions: 45
    Spherical Harmonics?: true
    Max angular momentum: 2

  Minimum eigenvalue in the overlap matrix is 6.0627546240E-02.
  Using Symmetric Orthogonalization.

  SCF Guess: Superposition of Atomic Densities via on-the-fly atomic UHF.

  ==> Iterations <==

                           Total Energy        Delta E     RMS |[F,P]|

   @DF-RHF iter   0:     1.69595433459179    1.69595e+00   4.17471e-01 
   @DF-RHF iter   1:     1.24542910620405   -4.50525e-01   4.01796e-02 
   @DF-RHF iter   2:     1.24289033916901   -2.53877e-03   4.74012e-03 DIIS
   @DF-RHF iter   3:     1.24285434803835   -3.59911e-05   8.17883e-06 DIIS
   @DF-RHF iter   4:     1.24285434793112   -1.07228e-10   7.92620e-09 DIIS

  ==> Post-Iterations <==

    Orbital Energies [Eh]
    ---------------------

    Doubly Occupied:                                                      

       1A1    -2.391253  

    Virtual:                                                              

       2A1     0.444266  

    Final Occupation by Irrep:
             A1    A2    B1    B2 
    DOCC [     1,    0,    0,    0 ]

  Energy converged.

  @DF-RHF Final Energy:     1.24285434793112

   => Energetics <=

    Nuclear Repulsion Energy =              7.2083820213398626
    One-Electron Energy =                  -7.1485490472199471
    Two-Electron Energy =                   1.1830213738112056
    Total Energy =                          1.2428543479311212



Properties will be evaluated at   0.000000,   0.000000,   0.000000 [a0]

Properties computed using the SCF density matrix

  Nuclear Dipole Moment: [e a0]
     X:     0.0000      Y:     0.0000      Z:     0.1100

  Electronic Dipole Moment: [e a0]
     X:     0.0000      Y:     0.0000      Z:     0.2617

  Dipole Moment: [e a0]
     X:     0.0000      Y:     0.0000      Z:     0.3718     Total:     0.3718

  Dipole Moment: [D]
     X:     0.0000      Y:     0.0000      Z:     0.9450     Total:     0.9450


*** tstop() called on marcosgpc at Mon Oct  1 19:03:51 2018
Module time:
	user time   =       0.24 seconds =       0.00 minutes
	system time =       0.00 seconds =       0.00 minutes
	total time  =          0 seconds =       0.00 minutes
Total time:
	user time   =       2.74 seconds =       0.05 minutes
	system time =       0.06 seconds =       0.00 minutes
	total time  =          3 seconds =       0.05 minutes
Molecule: Setting geometry variable d to 0.151505

*** tstart() called on marcosgpc
*** at Mon Oct  1 19:03:51 2018

   => Loading Basis Set <=

    Name: STO-3G
    Role: ORBITAL
    Keyword: BASIS
    atoms 1 entry HE         line    25 file /home/mike/anaconda3/share/psi4/basis/sto-3g.gbs 
    atoms 2 entry H          line    19 file /home/mike/anaconda3/share/psi4/basis/sto-3g.gbs 


         ---------------------------------------------------------
                                   SCF
            by Justin Turney, Rob Parrish, Andy Simmonett
                             and Daniel Smith
                              RHF Reference
                        1 Threads,    500 MiB Core
         ---------------------------------------------------------

  ==> Geometry <==

    Molecular point group: c2v
    Full point group: C_inf_v

    Geometry (in Angstrom), charge = 1, multiplicity = 1:

       Center              X                  Y                   Z               Mass       
    ------------   -----------------  -----------------  -----------------  -----------------
         HE           0.000000000000     0.000000000000    -0.030474550201     4.002603254150
         H            0.000000000000     0.000000000000     0.121030466521     1.007825032070

  Running in c2v symmetry.

  Rotational constants: A = ************  B =    912.19908  C =    912.19908 [cm^-1]
  Rotational constants: A = ************  B = 27347040.51106  C = 27347040.51106 [MHz]
  Nuclear repulsion =    6.985606418031348

  Charge       = 1
  Multiplicity = 1
  Electrons    = 2
  Nalpha       = 1
  Nbeta        = 1

  ==> Algorithm <==

  SCF Algorithm Type is DF.
  DIIS enabled.
  MOM disabled.
  Fractional occupation disabled.
  Guess Type is SAD.
  Energy threshold   = 1.00e-06
  Density threshold  = 1.00e-06
  Integral threshold = 0.00e+00

  ==> Primary Basis <==

  Basis Set: STO-3G
    Blend: STO-3G
    Number of shells: 2
    Number of basis function: 2
    Number of Cartesian functions: 2
    Spherical Harmonics?: true
    Max angular momentum: 0

   => Loading Basis Set <=

    Name: (STO-3G AUX)
    Role: JKFIT
    Keyword: DF_BASIS_SCF
    atoms 1 entry HE         line    39 file /home/mike/anaconda3/share/psi4/basis/def2-svp-jkfit.gbs 
    atoms 2 entry H          line    23 file /home/mike/anaconda3/share/psi4/basis/def2-svp-jkfit.gbs 

  ==> Pre-Iterations <==

   -------------------------------------------------------
    Irrep   Nso     Nmo     Nalpha   Nbeta   Ndocc  Nsocc
   -------------------------------------------------------
     A1         2       2       0       0       0       0
     A2         0       0       0       0       0       0
     B1         0       0       0       0       0       0
     B2         0       0       0       0       0       0
   -------------------------------------------------------
    Total       2       2       1       1       1       0
   -------------------------------------------------------

  ==> Integral Setup <==

  DFHelper Memory: AOs need 0.000 [GiB]; user supplied 0.366 [GiB]. Using in-core AOs.

  ==> MemDFJK: Density-Fitted J/K Matrices <==

    J tasked:                   Yes
    K tasked:                   Yes
    wK tasked:                   No
    OpenMP threads:               1
    Memory (MB):                375
    Algorithm:                 Core
    Schwarz Cutoff:           1E-12
    Mask sparsity (%):       0.0000
    Fitting Condition:        1E-12

   => Auxiliary Basis Set <=

  Basis Set: (STO-3G AUX)
    Blend: DEF2-SVP-JKFIT
    Number of shells: 15
    Number of basis function: 41
    Number of Cartesian functions: 45
    Spherical Harmonics?: true
    Max angular momentum: 2

  Minimum eigenvalue in the overlap matrix is 6.2190552901E-02.
  Using Symmetric Orthogonalization.

  SCF Guess: Superposition of Atomic Densities via on-the-fly atomic UHF.

  ==> Iterations <==

                           Total Energy        Delta E     RMS |[F,P]|

   @DF-RHF iter   0:     1.48864070787091    1.48864e+00   4.08229e-01 
   @DF-RHF iter   1:     1.04737568385271   -4.41265e-01   3.91038e-02 
   @DF-RHF iter   2:     1.04497204707339   -2.40364e-03   4.58407e-03 DIIS
   @DF-RHF iter   3:     1.04493841161071   -3.36355e-05   7.61286e-06 DIIS
   @DF-RHF iter   4:     1.04493841151788   -9.28253e-11   7.09531e-09 DIIS

  ==> Post-Iterations <==

    Orbital Energies [Eh]
    ---------------------

    Doubly Occupied:                                                      

       1A1    -2.382361  

    Virtual:                                                              

       2A1     0.452711  

    Final Occupation by Irrep:
             A1    A2    B1    B2 
    DOCC [     1,    0,    0,    0 ]

  Energy converged.

  @DF-RHF Final Energy:     1.04493841151788

   => Energetics <=

    Nuclear Repulsion Energy =              6.9856064180313480
    One-Electron Energy =                  -7.1166147079257165
    Two-Electron Energy =                   1.1759467014122487
    Total Energy =                          1.0449384115178801



Properties will be evaluated at   0.000000,   0.000000,   0.000000 [a0]

Properties computed using the SCF density matrix

  Nuclear Dipole Moment: [e a0]
     X:     0.0000      Y:     0.0000      Z:     0.1135

  Electronic Dipole Moment: [e a0]
     X:     0.0000      Y:     0.0000      Z:     0.2615

  Dipole Moment: [e a0]
     X:     0.0000      Y:     0.0000      Z:     0.3750     Total:     0.3750

  Dipole Moment: [D]
     X:     0.0000      Y:     0.0000      Z:     0.9532     Total:     0.9532


*** tstop() called on marcosgpc at Mon Oct  1 19:03:51 2018
Module time:
	user time   =       0.25 seconds =       0.00 minutes
	system time =       0.01 seconds =       0.00 minutes
	total time  =          0 seconds =       0.00 minutes
Total time:
	user time   =       2.99 seconds =       0.05 minutes
	system time =       0.07 seconds =       0.00 minutes
	total time  =          3 seconds =       0.05 minutes
Molecule: Setting geometry variable d to 0.156187

*** tstart() called on marcosgpc
*** at Mon Oct  1 19:03:51 2018

   => Loading Basis Set <=

    Name: STO-3G
    Role: ORBITAL
    Keyword: BASIS
    atoms 1 entry HE         line    25 file /home/mike/anaconda3/share/psi4/basis/sto-3g.gbs 
    atoms 2 entry H          line    19 file /home/mike/anaconda3/share/psi4/basis/sto-3g.gbs 


         ---------------------------------------------------------
                                   SCF
            by Justin Turney, Rob Parrish, Andy Simmonett
                             and Daniel Smith
                              RHF Reference
                        1 Threads,    500 MiB Core
         ---------------------------------------------------------

  ==> Geometry <==

    Molecular point group: c2v
    Full point group: C_inf_v

    Geometry (in Angstrom), charge = 1, multiplicity = 1:

       Center              X                  Y                   Z               Mass       
    ------------   -----------------  -----------------  -----------------  -----------------
         HE           0.000000000000     0.000000000000    -0.031416368530     4.002603254150
         H            0.000000000000     0.000000000000     0.124770922440     1.007825032070

  Running in c2v symmetry.

  Rotational constants: A = ************  B =    858.32601  C =    858.32601 [cm^-1]
  Rotational constants: A = ************  B = 25731966.47347  C = 25731966.47347 [MHz]
  Nuclear repulsion =    6.776187810210277

  Charge       = 1
  Multiplicity = 1
  Electrons    = 2
  Nalpha       = 1
  Nbeta        = 1

  ==> Algorithm <==

  SCF Algorithm Type is DF.
  DIIS enabled.
  MOM disabled.
  Fractional occupation disabled.
  Guess Type is SAD.
  Energy threshold   = 1.00e-06
  Density threshold  = 1.00e-06
  Integral threshold = 0.00e+00

  ==> Primary Basis <==

  Basis Set: STO-3G
    Blend: STO-3G
    Number of shells: 2
    Number of basis function: 2
    Number of Cartesian functions: 2
    Spherical Harmonics?: true
    Max angular momentum: 0

   => Loading Basis Set <=

    Name: (STO-3G AUX)
    Role: JKFIT
    Keyword: DF_BASIS_SCF
    atoms 1 entry HE         line    39 file /home/mike/anaconda3/share/psi4/basis/def2-svp-jkfit.gbs 
    atoms 2 entry H          line    23 file /home/mike/anaconda3/share/psi4/basis/def2-svp-jkfit.gbs 

  ==> Pre-Iterations <==

   -------------------------------------------------------
    Irrep   Nso     Nmo     Nalpha   Nbeta   Ndocc  Nsocc
   -------------------------------------------------------
     A1         2       2       0       0       0       0
     A2         0       0       0       0       0       0
     B1         0       0       0       0       0       0
     B2         0       0       0       0       0       0
   -------------------------------------------------------
    Total       2       2       1       1       1       0
   -------------------------------------------------------

  ==> Integral Setup <==

  DFHelper Memory: AOs need 0.000 [GiB]; user supplied 0.366 [GiB]. Using in-core AOs.

  ==> MemDFJK: Density-Fitted J/K Matrices <==

    J tasked:                   Yes
    K tasked:                   Yes
    wK tasked:                   No
    OpenMP threads:               1
    Memory (MB):                375
    Algorithm:                 Core
    Schwarz Cutoff:           1E-12
    Mask sparsity (%):       0.0000
    Fitting Condition:        1E-12

   => Auxiliary Basis Set <=

  Basis Set: (STO-3G AUX)
    Blend: DEF2-SVP-JKFIT
    Number of shells: 15
    Number of basis function: 41
    Number of Cartesian functions: 45
    Spherical Harmonics?: true
    Max angular momentum: 2

  Minimum eigenvalue in the overlap matrix is 6.3797180091E-02.
  Using Symmetric Orthogonalization.

  SCF Guess: Superposition of Atomic Densities via on-the-fly atomic UHF.

  ==> Iterations <==

                           Total Energy        Delta E     RMS |[F,P]|

   @DF-RHF iter   0:     1.29493805138916    1.29494e+00   3.99130e-01 
   @DF-RHF iter   1:     0.86226721843327   -4.32671e-01   3.80641e-02 
   @DF-RHF iter   2:     0.85999001232565   -2.27721e-03   4.43646e-03 DIIS
   @DF-RHF iter   3:     0.85995852222306   -3.14901e-05   7.09619e-06 DIIS
   @DF-RHF iter   4:     0.85995852214244   -8.06133e-11   6.36542e-09 DIIS

  ==> Post-Iterations <==

    Orbital Energies [Eh]
    ---------------------

    Doubly Occupied:                                                      

       1A1    -2.373586  

    Virtual:                                                              

       2A1     0.460420  

    Final Occupation by Irrep:
             A1    A2    B1    B2 
    DOCC [     1,    0,    0,    0 ]

  Energy converged.

  @DF-RHF Final Energy:     0.85995852214244

   => Energetics <=

    Nuclear Repulsion Energy =              6.7761878102102768
    One-Electron Energy =                  -7.0852874856006967
    Two-Electron Energy =                   1.1690581975328640
    Total Energy =                          0.8599585221424442



Properties will be evaluated at   0.000000,   0.000000,   0.000000 [a0]

Properties computed using the SCF density matrix

  Nuclear Dipole Moment: [e a0]
     X:     0.0000      Y:     0.0000      Z:     0.1170

  Electronic Dipole Moment: [e a0]
     X:     0.0000      Y:     0.0000      Z:     0.2608

  Dipole Moment: [e a0]
     X:     0.0000      Y:     0.0000      Z:     0.3779     Total:     0.3779

  Dipole Moment: [D]
     X:     0.0000      Y:     0.0000      Z:     0.9605     Total:     0.9605


*** tstop() called on marcosgpc at Mon Oct  1 19:03:51 2018
Module time:
	user time   =       0.25 seconds =       0.00 minutes
	system time =       0.00 seconds =       0.00 minutes
	total time  =          0 seconds =       0.00 minutes
Total time:
	user time   =       3.25 seconds =       0.05 minutes
	system time =       0.07 seconds =       0.00 minutes
	total time  =          3 seconds =       0.05 minutes
Molecule: Setting geometry variable d to 0.160870

*** tstart() called on marcosgpc
*** at Mon Oct  1 19:03:51 2018

[...]

    Doubly Occupied:                                                      

       1A1    -1.266330  

    Virtual:                                                              

       2A1    -0.423476  

    Final Occupation by Irrep:
             A1    A2    B1    B2 
    DOCC [     1,    0,    0,    0 ]

  Energy converged.

  @DF-RHF Final Energy:    -2.82418422888741

   => Energetics <=

    Nuclear Repulsion Energy =              0.7122394119667342
    One-Electron Energy =                  -4.5401872741477147
    Two-Electron Energy =                   1.0037636332935682
    Total Energy =                         -2.8241842288874119



Properties will be evaluated at   0.000000,   0.000000,   0.000000 [a0]

Properties computed using the SCF density matrix

  Nuclear Dipole Moment: [e a0]
     X:     0.0000      Y:     0.0000      Z:     1.1136

  Electronic Dipole Moment: [e a0]
     X:     0.0000      Y:     0.0000      Z:     0.9522

  Dipole Moment: [e a0]
     X:     0.0000      Y:     0.0000      Z:     2.0657     Total:     2.0657

  Dipole Moment: [D]
     X:     0.0000      Y:     0.0000      Z:     5.2506     Total:     5.2506


*** tstop() called on marcosgpc at Mon Oct  1 19:05:05 2018
Module time:
	user time   =       0.24 seconds =       0.00 minutes
	system time =       0.00 seconds =       0.00 minutes
	total time  =          0 seconds =       0.00 minutes
Total time:
	user time   =      75.74 seconds =       1.26 minutes
	system time =       0.92 seconds =       0.02 minutes
	total time  =         77 seconds =       1.28 minutes
Molecule: Setting geometry variable d to 1.490635

*** tstart() called on marcosgpc
*** at Mon Oct  1 19:05:05 2018

   => Loading Basis Set <=

    Name: STO-3G
    Role: ORBITAL
    Keyword: BASIS
    atoms 1 entry HE         line    25 file /home/mike/anaconda3/share/psi4/basis/sto-3g.gbs 
    atoms 2 entry H          line    19 file /home/mike/anaconda3/share/psi4/basis/sto-3g.gbs 


         ---------------------------------------------------------
                                   SCF
            by Justin Turney, Rob Parrish, Andy Simmonett
                             and Daniel Smith
                              RHF Reference
                        1 Threads,    500 MiB Core
         ---------------------------------------------------------

  ==> Geometry <==

    Molecular point group: c2v
    Full point group: C_inf_v

    Geometry (in Angstrom), charge = 1, multiplicity = 1:

       Center              X                  Y                   Z               Mass       
    ------------   -----------------  -----------------  -----------------  -----------------
         HE           0.000000000000     0.000000000000    -0.299834592154     4.002603254150
         H            0.000000000000     0.000000000000     1.190800859351     1.007825032070

  Running in c2v symmetry.

  Rotational constants: A = ************  B =      9.42325  C =      9.42325 [cm^-1]
  Rotational constants: A = ************  B = 282501.96295  C = 282501.96295 [MHz]
  Nuclear repulsion =    0.710002178004981

  Charge       = 1
  Multiplicity = 1
  Electrons    = 2
  Nalpha       = 1
  Nbeta        = 1

  ==> Algorithm <==

  SCF Algorithm Type is DF.
  DIIS enabled.
  MOM disabled.
  Fractional occupation disabled.
  Guess Type is SAD.
  Energy threshold   = 1.00e-06
  Density threshold  = 1.00e-06
  Integral threshold = 0.00e+00

  ==> Primary Basis <==

  Basis Set: STO-3G
    Blend: STO-3G
    Number of shells: 2
    Number of basis function: 2
    Number of Cartesian functions: 2
    Spherical Harmonics?: true
    Max angular momentum: 0

   => Loading Basis Set <=

    Name: (STO-3G AUX)
    Role: JKFIT
    Keyword: DF_BASIS_SCF
    atoms 1 entry HE         line    39 file /home/mike/anaconda3/share/psi4/basis/def2-svp-jkfit.gbs 
    atoms 2 entry H          line    23 file /home/mike/anaconda3/share/psi4/basis/def2-svp-jkfit.gbs 

  ==> Pre-Iterations <==

   -------------------------------------------------------
    Irrep   Nso     Nmo     Nalpha   Nbeta   Ndocc  Nsocc
   -------------------------------------------------------
     A1         2       2       0       0       0       0
     A2         0       0       0       0       0       0
     B1         0       0       0       0       0       0
     B2         0       0       0       0       0       0
   -------------------------------------------------------
    Total       2       2       1       1       1       0
   -------------------------------------------------------

  ==> Integral Setup <==

  DFHelper Memory: AOs need 0.000 [GiB]; user supplied 0.366 [GiB]. Using in-core AOs.

  ==> MemDFJK: Density-Fitted J/K Matrices <==

    J tasked:                   Yes
    K tasked:                   Yes
    wK tasked:                   No
    OpenMP threads:               1
    Memory (MB):                375
    Algorithm:                 Core
    Schwarz Cutoff:           1E-12
    Mask sparsity (%):       0.0000
    Fitting Condition:        1E-12

   => Auxiliary Basis Set <=

  Basis Set: (STO-3G AUX)
    Blend: DEF2-SVP-JKFIT
    Number of shells: 15
    Number of basis function: 41
    Number of Cartesian functions: 45
    Spherical Harmonics?: true
    Max angular momentum: 2

  Minimum eigenvalue in the overlap matrix is 8.2368423351E-01.
  Using Symmetric Orthogonalization.

  SCF Guess: Superposition of Atomic Densities via on-the-fly atomic UHF.

  ==> Iterations <==

                           Total Energy        Delta E     RMS |[F,P]|

   @DF-RHF iter   0:    -2.26270870320294   -2.26271e+00   2.53788e-02 
   @DF-RHF iter   1:    -2.81895326658665   -5.56245e-01   2.60953e-02 
   @DF-RHF iter   2:    -2.82344659541486   -4.49333e-03   8.66393e-03 DIIS
   @DF-RHF iter   3:    -2.82396485190485   -5.18256e-04   3.35874e-04 DIIS
   @DF-RHF iter   4:    -2.82396560789539   -7.55991e-07   8.08643e-06 DIIS
   @DF-RHF iter   5:    -2.82396560833424   -4.38854e-10   1.26783e-07 DIIS

  ==> Post-Iterations <==

    Orbital Energies [Eh]
    ---------------------

    Doubly Occupied:                                                      

       1A1    -1.264835  

    Virtual:                                                              

       2A1    -0.424085  

    Final Occupation by Irrep:
             A1    A2    B1    B2 
    DOCC [     1,    0,    0,    0 ]

  Energy converged.

  @DF-RHF Final Energy:    -2.82396560833424

   => Energetics <=

    Nuclear Repulsion Energy =              0.7100021780049807
    One-Electron Energy =                  -4.5382646511933968
    Two-Electron Energy =                   1.0042968648541715
    Total Energy =                         -2.8239656083342446



Properties will be evaluated at   0.000000,   0.000000,   0.000000 [a0]

Properties computed using the SCF density matrix

  Nuclear Dipole Moment: [e a0]
     X:     0.0000      Y:     0.0000      Z:     1.1171

  Electronic Dipole Moment: [e a0]
     X:     0.0000      Y:     0.0000      Z:     0.9574

  Dipole Moment: [e a0]
     X:     0.0000      Y:     0.0000      Z:     2.0745     Total:     2.0745

  Dipole Moment: [D]
     X:     0.0000      Y:     0.0000      Z:     5.2728     Total:     5.2728


*** tstop() called on marcosgpc at Mon Oct  1 19:05:05 2018
Module time:
	user time   =       0.24 seconds =       0.00 minutes
	system time =       0.00 seconds =       0.00 minutes
	total time  =          0 seconds =       0.00 minutes
Total time:
	user time   =      75.99 seconds =       1.27 minutes
	system time =       0.92 seconds =       0.02 minutes
	total time  =         77 seconds =       1.28 minutes
Molecule: Setting geometry variable d to 1.495318

*** tstart() called on marcosgpc
*** at Mon Oct  1 19:05:05 2018

   => Loading Basis Set <=

    Name: STO-3G
    Role: ORBITAL
    Keyword: BASIS
    atoms 1 entry HE         line    25 file /home/mike/anaconda3/share/psi4/basis/sto-3g.gbs 
    atoms 2 entry H          line    19 file /home/mike/anaconda3/share/psi4/basis/sto-3g.gbs 


         ---------------------------------------------------------
                                   SCF
            by Justin Turney, Rob Parrish, Andy Simmonett
                             and Daniel Smith
                              RHF Reference
                        1 Threads,    500 MiB Core
         ---------------------------------------------------------

  ==> Geometry <==

    Molecular point group: c2v
    Full point group: C_inf_v

    Geometry (in Angstrom), charge = 1, multiplicity = 1:

       Center              X                  Y                   Z               Mass       
    ------------   -----------------  -----------------  -----------------  -----------------
         HE           0.000000000000     0.000000000000    -0.300776410483     4.002603254150
         H            0.000000000000     0.000000000000     1.194541315270     1.007825032070

  Running in c2v symmetry.

  Rotational constants: A = ************  B =      9.36433  C =      9.36433 [cm^-1]
  Rotational constants: A = ************  B = 280735.54143  C = 280735.54143 [MHz]
  Nuclear repulsion =    0.707778954902304

  Charge       = 1
  Multiplicity = 1
  Electrons    = 2
  Nalpha       = 1
  Nbeta        = 1

  ==> Algorithm <==

  SCF Algorithm Type is DF.
  DIIS enabled.
  MOM disabled.
  Fractional occupation disabled.
  Guess Type is SAD.
  Energy threshold   = 1.00e-06
  Density threshold  = 1.00e-06
  Integral threshold = 0.00e+00

  ==> Primary Basis <==

  Basis Set: STO-3G
    Blend: STO-3G
    Number of shells: 2
    Number of basis function: 2
    Number of Cartesian functions: 2
    Spherical Harmonics?: true
    Max angular momentum: 0

   => Loading Basis Set <=

    Name: (STO-3G AUX)
    Role: JKFIT
    Keyword: DF_BASIS_SCF
    atoms 1 entry HE         line    39 file /home/mike/anaconda3/share/psi4/basis/def2-svp-jkfit.gbs 
    atoms 2 entry H          line    23 file /home/mike/anaconda3/share/psi4/basis/def2-svp-jkfit.gbs 

  ==> Pre-Iterations <==

   -------------------------------------------------------
    Irrep   Nso     Nmo     Nalpha   Nbeta   Ndocc  Nsocc
   -------------------------------------------------------
     A1         2       2       0       0       0       0
     A2         0       0       0       0       0       0
     B1         0       0       0       0       0       0
     B2         0       0       0       0       0       0
   -------------------------------------------------------
    Total       2       2       1       1       1       0
   -------------------------------------------------------

  ==> Integral Setup <==

  DFHelper Memory: AOs need 0.000 [GiB]; user supplied 0.366 [GiB]. Using in-core AOs.

  ==> MemDFJK: Density-Fitted J/K Matrices <==

    J tasked:                   Yes
    K tasked:                   Yes
    wK tasked:                   No
    OpenMP threads:               1
    Memory (MB):                375
    Algorithm:                 Core
    Schwarz Cutoff:           1E-12
    Mask sparsity (%):       0.0000
    Fitting Condition:        1E-12

   => Auxiliary Basis Set <=

  Basis Set: (STO-3G AUX)
    Blend: DEF2-SVP-JKFIT
    Number of shells: 15
    Number of basis function: 41
    Number of Cartesian functions: 45
    Spherical Harmonics?: true
    Max angular momentum: 2

  Minimum eigenvalue in the overlap matrix is 8.2512866229E-01.
  Using Symmetric Orthogonalization.

  SCF Guess: Superposition of Atomic Densities via on-the-fly atomic UHF.

  ==> Iterations <==

                           Total Energy        Delta E     RMS |[F,P]|

   @DF-RHF iter   0:    -2.26278342981212   -2.26278e+00   2.51999e-02 
   @DF-RHF iter   1:    -2.81877429315292   -5.55991e-01   2.59509e-02 
   @DF-RHF iter   2:    -2.82323112808078   -4.45683e-03   8.63877e-03 DIIS
   @DF-RHF iter   3:    -2.82374838123840   -5.17253e-04   3.34403e-04 DIIS
   @DF-RHF iter   4:    -2.82374913351791   -7.52280e-07   8.04853e-06 DIIS
   @DF-RHF iter   5:    -2.82374913395434   -4.36433e-10   1.26131e-07 DIIS

  ==> Post-Iterations <==

    Orbital Energies [Eh]
    ---------------------

    Doubly Occupied:                                                      

       1A1    -1.263350  

    Virtual:                                                              

       2A1    -0.424687  

    Final Occupation by Irrep:
             A1    A2    B1    B2 
    DOCC [     1,    0,    0,    0 ]

  Energy converged.

  @DF-RHF Final Energy:    -2.82374913395434

   => Energetics <=

    Nuclear Repulsion Energy =              0.7077789549023037
    One-Electron Energy =                  -4.5363559033019873
    Two-Electron Energy =                   1.0048278144453426
    Total Energy =                         -2.8237491339543412



Properties will be evaluated at   0.000000,   0.000000,   0.000000 [a0]

Properties computed using the SCF density matrix

  Nuclear Dipole Moment: [e a0]
     X:     0.0000      Y:     0.0000      Z:     1.1206

  Electronic Dipole Moment: [e a0]
     X:     0.0000      Y:     0.0000      Z:     0.9626

  Dipole Moment: [e a0]
     X:     0.0000      Y:     0.0000      Z:     2.0832     Total:     2.0832

  Dipole Moment: [D]
     X:     0.0000      Y:     0.0000      Z:     5.2949     Total:     5.2949


*** tstop() called on marcosgpc at Mon Oct  1 19:05:05 2018
Module time:
	user time   =       0.24 seconds =       0.00 minutes
	system time =       0.00 seconds =       0.00 minutes
	total time  =          0 seconds =       0.00 minutes
Total time:
	user time   =      76.24 seconds =       1.27 minutes
	system time =       0.92 seconds =       0.02 minutes
	total time  =         77 seconds =       1.28 minutes
Molecule: Setting geometry variable d to 1.500000

*** tstart() called on marcosgpc
*** at Mon Oct  1 19:05:05 2018

   => Loading Basis Set <=

    Name: STO-3G
    Role: ORBITAL
    Keyword: BASIS
    atoms 1 entry HE         line    25 file /home/mike/anaconda3/share/psi4/basis/sto-3g.gbs 
    atoms 2 entry H          line    19 file /home/mike/anaconda3/share/psi4/basis/sto-3g.gbs 


         ---------------------------------------------------------
                                   SCF
            by Justin Turney, Rob Parrish, Andy Simmonett
                             and Daniel Smith
                              RHF Reference
                        1 Threads,    500 MiB Core
         ---------------------------------------------------------

  ==> Geometry <==

    Molecular point group: c2v
    Full point group: C_inf_v

    Geometry (in Angstrom), charge = 1, multiplicity = 1:

       Center              X                  Y                   Z               Mass       
    ------------   -----------------  -----------------  -----------------  -----------------
         HE           0.000000000000     0.000000000000    -0.301718228811     4.002603254150
         H            0.000000000000     0.000000000000     1.198281771189     1.007825032070

  Running in c2v symmetry.

  Rotational constants: A = ************  B =      9.30596  C =      9.30596 [cm^-1]
  Rotational constants: A = ************  B = 278985.63582  C = 278985.63582 [MHz]
  Nuclear repulsion =    0.705569611453333

  Charge       = 1
  Multiplicity = 1
  Electrons    = 2
  Nalpha       = 1
  Nbeta        = 1

  ==> Algorithm <==

  SCF Algorithm Type is DF.
  DIIS enabled.
  MOM disabled.
  Fractional occupation disabled.
  Guess Type is SAD.
  Energy threshold   = 1.00e-06
  Density threshold  = 1.00e-06
  Integral threshold = 0.00e+00

  ==> Primary Basis <==

  Basis Set: STO-3G
    Blend: STO-3G
    Number of shells: 2
    Number of basis function: 2
    Number of Cartesian functions: 2
    Spherical Harmonics?: true
    Max angular momentum: 0

   => Loading Basis Set <=

    Name: (STO-3G AUX)
    Role: JKFIT
    Keyword: DF_BASIS_SCF
    atoms 1 entry HE         line    39 file /home/mike/anaconda3/share/psi4/basis/def2-svp-jkfit.gbs 
    atoms 2 entry H          line    23 file /home/mike/anaconda3/share/psi4/basis/def2-svp-jkfit.gbs 

  ==> Pre-Iterations <==

   -------------------------------------------------------
    Irrep   Nso     Nmo     Nalpha   Nbeta   Ndocc  Nsocc
   -------------------------------------------------------
     A1         2       2       0       0       0       0
     A2         0       0       0       0       0       0
     B1         0       0       0       0       0       0
     B2         0       0       0       0       0       0
   -------------------------------------------------------
    Total       2       2       1       1       1       0
   -------------------------------------------------------

  ==> Integral Setup <==

  DFHelper Memory: AOs need 0.000 [GiB]; user supplied 0.366 [GiB]. Using in-core AOs.

  ==> MemDFJK: Density-Fitted J/K Matrices <==

    J tasked:                   Yes
    K tasked:                   Yes
    wK tasked:                   No
    OpenMP threads:               1
    Memory (MB):                375
    Algorithm:                 Core
    Schwarz Cutoff:           1E-12
    Mask sparsity (%):       0.0000
    Fitting Condition:        1E-12

   => Auxiliary Basis Set <=

  Basis Set: (STO-3G AUX)
    Blend: DEF2-SVP-JKFIT
    Number of shells: 15
    Number of basis function: 41
    Number of Cartesian functions: 45
    Spherical Harmonics?: true
    Max angular momentum: 2

  Minimum eigenvalue in the overlap matrix is 8.2656307804E-01.
  Using Symmetric Orthogonalization.

  SCF Guess: Superposition of Atomic Densities via on-the-fly atomic UHF.

  ==> Iterations <==

                           Total Energy        Delta E     RMS |[F,P]|

   @DF-RHF iter   0:    -2.26285936798211   -2.26286e+00   2.50219e-02 
   @DF-RHF iter   1:    -2.81859779232967   -5.55738e-01   2.58061e-02 
   @DF-RHF iter   2:    -2.82301790568357   -4.42011e-03   8.61293e-03 DIIS
   @DF-RHF iter   3:    -2.82353405488051   -5.16149e-04   3.32856e-04 DIIS
   @DF-RHF iter   4:    -2.82353480307872   -7.48198e-07   8.00755e-06 DIIS
   @DF-RHF iter   5:    -2.82353480351238   -4.33658e-10   1.25412e-07 DIIS

  ==> Post-Iterations <==

    Orbital Energies [Eh]
    ---------------------

    Doubly Occupied:                                                      

       1A1    -1.261874  

    Virtual:                                                              

       2A1    -0.425282  

    Final Occupation by Irrep:
             A1    A2    B1    B2 
    DOCC [     1,    0,    0,    0 ]

  Energy converged.

  @DF-RHF Final Energy:    -2.82353480351238

   => Energetics <=

    Nuclear Repulsion Energy =              0.7055696114533332
    One-Electron Energy =                  -4.5344608481580044
    Two-Electron Energy =                   1.0053564331922955
    Total Energy =                         -2.8235348035123762



Properties will be evaluated at   0.000000,   0.000000,   0.000000 [a0]

Properties computed using the SCF density matrix

  Nuclear Dipole Moment: [e a0]
     X:     0.0000      Y:     0.0000      Z:     1.1241

  Electronic Dipole Moment: [e a0]
     X:     0.0000      Y:     0.0000      Z:     0.9678

  Dipole Moment: [e a0]
     X:     0.0000      Y:     0.0000      Z:     2.0919     Total:     2.0919

  Dipole Moment: [D]
     X:     0.0000      Y:     0.0000      Z:     5.3171     Total:     5.3171


*** tstop() called on marcosgpc at Mon Oct  1 19:05:06 2018
Module time:
	user time   =       0.24 seconds =       0.00 minutes
	system time =       0.00 seconds =       0.00 minutes
	total time  =          1 seconds =       0.02 minutes
Total time:
	user time   =      76.49 seconds =       1.27 minutes
	system time =       0.92 seconds =       0.02 minutes
	total time  =         78 seconds =       1.30 minutes

    Psi4 stopped on: Monday, 01 October 2018 07:05PM
    Psi4 wall time for execution: 0:01:17.54

*** Psi4 exiting successfully. Buy a developer a beer!
